# LAMMPS data file written by OVITO Basic 3.7.5
32800 atoms
5 atom types
0.0 90.51 xlo xhi
0.0 90.51 ylo yhi
0.0 181.02 zlo zhi

Atoms  # atomic

1 4 0.0 0.0 45.255
2 5 2.26275 2.26275 45.255
3 1 2.26275 0.0 47.5177
4 4 0.0 2.26275 47.5177
5 1 4.5255 0.0 45.255
6 1 6.78825 2.26275 45.255
7 4 6.78825 0.0 47.5177
8 1 4.5255 2.26275 47.5177
9 2 9.051 0.0 45.255
12 3 9.051 2.26275 47.5177
10 1 11.3138 2.26275 45.255
11 1 11.3138 0.0 47.5177
13 1 13.5765 0.0 45.255
16 4 13.5765 2.26275 47.5177
14 1 15.8392 2.26275 45.255
15 4 15.8392 0.0 47.5177
17 1 18.102 0.0 45.255
18 1 20.3648 2.26275 45.255
19 1 20.3648 0.0 47.5177
20 1 18.102 2.26275 47.5177
21 3 22.6275 0.0 45.255
24 1 22.6275 2.26275 47.5177
22 4 24.8903 2.26275 45.255
23 3 24.8903 0.0 47.5177
25 2 27.153 0.0 45.255
28 4 27.153 2.26275 47.5177
26 1 29.4157 2.26275 45.255
27 1 29.4157 0.0 47.5177
29 2 31.6785 0.0 45.255
30 1 33.9413 2.26275 45.255
31 1 33.9413 0.0 47.5177
32 1 31.6785 2.26275 47.5177
33 2 36.204 0.0 45.255
36 4 36.204 2.26275 47.5177
34 4 38.4667 2.26275 45.255
35 1 38.4667 0.0 47.5177
37 1 40.7295 0.0 45.255
40 2 40.7295 2.26275 47.5177
38 2 42.9922 2.26275 45.255
39 4 42.9922 0.0 47.5177
41 1 45.255 0.0 45.255
42 1 47.5177 2.26275 45.255
43 5 47.5177 0.0 47.5177
44 1 45.255 2.26275 47.5177
45 2 49.7805 0.0 45.255
46 2 52.0433 2.26275 45.255
47 1 52.0433 0.0 47.5177
48 2 49.7805 2.26275 47.5177
49 1 54.306 0.0 45.255
52 1 54.306 2.26275 47.5177
50 3 56.5688 2.26275 45.255
51 1 56.5688 0.0 47.5177
53 2 58.8315 0.0 45.255
56 4 58.8315 2.26275 47.5177
54 1 61.0943 2.26275 45.255
55 2 61.0943 0.0 47.5177
57 5 63.357 0.0 45.255
58 1 65.6197 2.26275 45.255
59 1 65.6197 0.0 47.5177
60 1 63.357 2.26275 47.5177
61 4 67.8825 0.0 45.255
64 5 67.8825 2.26275 47.5177
62 1 70.1453 2.26275 45.255
63 2 70.1453 0.0 47.5177
65 5 72.408 0.0 45.255
68 1 72.408 2.26275 47.5177
66 1 74.6707 2.26275 45.255
67 1 74.6707 0.0 47.5177
69 1 76.9335 0.0 45.255
70 1 79.1963 2.26275 45.255
71 1 79.1963 0.0 47.5177
72 1 76.9335 2.26275 47.5177
73 1 81.459 0.0 45.255
76 4 81.459 2.26275 47.5177
74 1 83.7218 2.26275 45.255
75 2 83.7218 0.0 47.5177
77 1 85.9845 0.0 45.255
80 3 85.9845 2.26275 47.5177
78 1 88.2473 2.26275 45.255
79 4 88.2473 0.0 47.5177
81 1 0.0 4.5255 45.255
82 5 2.26275 6.78825 45.255
83 4 2.26275 4.5255 47.5177
84 4 0.0 6.78825 47.5177
85 2 4.5255 4.5255 45.255
86 1 6.78825 6.78825 45.255
87 3 6.78825 4.5255 47.5177
88 1 4.5255 6.78825 47.5177
89 1 9.051 4.5255 45.255
92 1 9.051 6.78825 47.5177
90 1 11.3138 6.78825 45.255
91 1 11.3138 4.5255 47.5177
93 2 13.5765 4.5255 45.255
96 2 13.5765 6.78825 47.5177
94 1 15.8392 6.78825 45.255
95 2 15.8392 4.5255 47.5177
97 1 18.102 4.5255 45.255
98 3 20.3648 6.78825 45.255
99 2 20.3648 4.5255 47.5177
100 3 18.102 6.78825 47.5177
101 2 22.6275 4.5255 45.255
104 3 22.6275 6.78825 47.5177
102 3 24.8903 6.78825 45.255
103 1 24.8903 4.5255 47.5177
105 1 27.153 4.5255 45.255
108 2 27.153 6.78825 47.5177
106 3 29.4157 6.78825 45.255
107 3 29.4157 4.5255 47.5177
109 1 31.6785 4.5255 45.255
110 2 33.9413 6.78825 45.255
111 1 33.9413 4.5255 47.5177
112 5 31.6785 6.78825 47.5177
113 3 36.204 4.5255 45.255
116 1 36.204 6.78825 47.5177
114 1 38.4667 6.78825 45.255
115 1 38.4667 4.5255 47.5177
117 3 40.7295 4.5255 45.255
120 2 40.7295 6.78825 47.5177
118 2 42.9922 6.78825 45.255
119 1 42.9922 4.5255 47.5177
121 1 45.255 4.5255 45.255
122 1 47.5177 6.78825 45.255
123 2 47.5177 4.5255 47.5177
124 1 45.255 6.78825 47.5177
125 1 49.7805 4.5255 45.255
126 1 52.0433 6.78825 45.255
127 3 52.0433 4.5255 47.5177
128 3 49.7805 6.78825 47.5177
129 2 54.306 4.5255 45.255
132 3 54.306 6.78825 47.5177
130 2 56.5688 6.78825 45.255
131 1 56.5688 4.5255 47.5177
133 4 58.8315 4.5255 45.255
136 5 58.8315 6.78825 47.5177
134 4 61.0943 6.78825 45.255
135 2 61.0943 4.5255 47.5177
137 1 63.357 4.5255 45.255
138 3 65.6197 6.78825 45.255
139 1 65.6197 4.5255 47.5177
140 2 63.357 6.78825 47.5177
141 1 67.8825 4.5255 45.255
144 1 67.8825 6.78825 47.5177
142 5 70.1453 6.78825 45.255
143 2 70.1453 4.5255 47.5177
145 1 72.408 4.5255 45.255
148 1 72.408 6.78825 47.5177
146 1 74.6707 6.78825 45.255
147 1 74.6707 4.5255 47.5177
149 1 76.9335 4.5255 45.255
150 1 79.1963 6.78825 45.255
151 2 79.1963 4.5255 47.5177
152 3 76.9335 6.78825 47.5177
153 2 81.459 4.5255 45.255
156 1 81.459 6.78825 47.5177
154 1 83.7218 6.78825 45.255
155 1 83.7218 4.5255 47.5177
157 1 85.9845 4.5255 45.255
160 1 85.9845 6.78825 47.5177
158 1 88.2473 6.78825 45.255
159 1 88.2473 4.5255 47.5177
161 3 0.0 9.051 45.255
163 3 2.26275 9.051 47.5177
165 1 4.5255 9.051 45.255
167 1 6.78825 9.051 47.5177
169 3 9.051 9.051 45.255
171 4 11.3138 9.051 47.5177
173 1 13.5765 9.051 45.255
175 1 15.8392 9.051 47.5177
177 2 18.102 9.051 45.255
179 1 20.3648 9.051 47.5177
181 3 22.6275 9.051 45.255
183 1 24.8903 9.051 47.5177
185 3 27.153 9.051 45.255
187 1 29.4157 9.051 47.5177
189 1 31.6785 9.051 45.255
191 1 33.9413 9.051 47.5177
193 1 36.204 9.051 45.255
195 4 38.4667 9.051 47.5177
197 1 40.7295 9.051 45.255
199 2 42.9922 9.051 47.5177
201 1 45.255 9.051 45.255
203 4 47.5177 9.051 47.5177
205 1 49.7805 9.051 45.255
207 2 52.0433 9.051 47.5177
209 3 54.306 9.051 45.255
211 1 56.5688 9.051 47.5177
213 1 58.8315 9.051 45.255
215 1 61.0943 9.051 47.5177
217 5 63.357 9.051 45.255
219 1 65.6197 9.051 47.5177
221 1 67.8825 9.051 45.255
223 1 70.1453 9.051 47.5177
225 4 72.408 9.051 45.255
227 1 74.6707 9.051 47.5177
229 1 76.9335 9.051 45.255
231 3 79.1963 9.051 47.5177
233 4 81.459 9.051 45.255
235 4 83.7218 9.051 47.5177
237 4 85.9845 9.051 45.255
239 3 88.2473 9.051 47.5177
162 4 2.26275 11.3138 45.255
164 4 0.0 11.3138 47.5177
241 5 0.0 13.5765 45.255
243 1 2.26275 13.5765 47.5177
166 2 6.78825 11.3138 45.255
168 1 4.5255 11.3138 47.5177
245 3 4.5255 13.5765 45.255
247 1 6.78825 13.5765 47.5177
172 1 9.051 11.3138 47.5177
249 4 9.051 13.5765 45.255
170 2 11.3138 11.3138 45.255
176 1 13.5765 11.3138 47.5177
251 3 11.3138 13.5765 47.5177
253 1 13.5765 13.5765 45.255
174 3 15.8392 11.3138 45.255
255 1 15.8392 13.5765 47.5177
178 1 20.3648 11.3138 45.255
180 4 18.102 11.3138 47.5177
257 3 18.102 13.5765 45.255
259 3 20.3648 13.5765 47.5177
184 1 22.6275 11.3138 47.5177
261 1 22.6275 13.5765 45.255
182 5 24.8903 11.3138 45.255
188 2 27.153 11.3138 47.5177
263 1 24.8903 13.5765 47.5177
265 4 27.153 13.5765 45.255
186 3 29.4157 11.3138 45.255
267 3 29.4157 13.5765 47.5177
190 3 33.9413 11.3138 45.255
192 4 31.6785 11.3138 47.5177
269 4 31.6785 13.5765 45.255
271 1 33.9413 13.5765 47.5177
196 1 36.204 11.3138 47.5177
273 1 36.204 13.5765 45.255
194 4 38.4667 11.3138 45.255
200 3 40.7295 11.3138 47.5177
275 4 38.4667 13.5765 47.5177
277 1 40.7295 13.5765 45.255
198 3 42.9922 11.3138 45.255
279 2 42.9922 13.5765 47.5177
202 1 47.5177 11.3138 45.255
204 3 45.255 11.3138 47.5177
281 1 45.255 13.5765 45.255
283 5 47.5177 13.5765 47.5177
206 5 52.0433 11.3138 45.255
208 1 49.7805 11.3138 47.5177
285 1 49.7805 13.5765 45.255
287 1 52.0433 13.5765 47.5177
212 2 54.306 11.3138 47.5177
289 1 54.306 13.5765 45.255
210 3 56.5688 11.3138 45.255
216 1 58.8315 11.3138 47.5177
291 1 56.5688 13.5765 47.5177
293 1 58.8315 13.5765 45.255
214 2 61.0943 11.3138 45.255
295 1 61.0943 13.5765 47.5177
218 3 65.6197 11.3138 45.255
220 2 63.357 11.3138 47.5177
297 3 63.357 13.5765 45.255
299 3 65.6197 13.5765 47.5177
224 2 67.8825 11.3138 47.5177
301 1 67.8825 13.5765 45.255
222 2 70.1453 11.3138 45.255
228 3 72.408 11.3138 47.5177
303 3 70.1453 13.5765 47.5177
305 1 72.408 13.5765 45.255
226 1 74.6707 11.3138 45.255
307 1 74.6707 13.5765 47.5177
230 1 79.1963 11.3138 45.255
232 3 76.9335 11.3138 47.5177
309 3 76.9335 13.5765 45.255
311 1 79.1963 13.5765 47.5177
236 1 81.459 11.3138 47.5177
313 1 81.459 13.5765 45.255
234 1 83.7218 11.3138 45.255
240 1 85.9845 11.3138 47.5177
315 1 83.7218 13.5765 47.5177
317 1 85.9845 13.5765 45.255
238 1 88.2473 11.3138 45.255
319 1 88.2473 13.5765 47.5177
242 1 2.26275 15.8392 45.255
244 3 0.0 15.8392 47.5177
246 1 6.78825 15.8392 45.255
248 1 4.5255 15.8392 47.5177
252 1 9.051 15.8392 47.5177
250 4 11.3138 15.8392 45.255
256 1 13.5765 15.8392 47.5177
254 1 15.8392 15.8392 45.255
258 1 20.3648 15.8392 45.255
260 3 18.102 15.8392 47.5177
264 5 22.6275 15.8392 47.5177
262 3 24.8903 15.8392 45.255
268 3 27.153 15.8392 47.5177
266 1 29.4157 15.8392 45.255
270 1 33.9413 15.8392 45.255
272 3 31.6785 15.8392 47.5177
276 1 36.204 15.8392 47.5177
274 1 38.4667 15.8392 45.255
280 1 40.7295 15.8392 47.5177
278 2 42.9922 15.8392 45.255
282 2 47.5177 15.8392 45.255
284 1 45.255 15.8392 47.5177
286 1 52.0433 15.8392 45.255
288 2 49.7805 15.8392 47.5177
292 1 54.306 15.8392 47.5177
290 3 56.5688 15.8392 45.255
296 2 58.8315 15.8392 47.5177
294 1 61.0943 15.8392 45.255
298 1 65.6197 15.8392 45.255
300 1 63.357 15.8392 47.5177
304 1 67.8825 15.8392 47.5177
302 1 70.1453 15.8392 45.255
308 2 72.408 15.8392 47.5177
306 2 74.6707 15.8392 45.255
310 3 79.1963 15.8392 45.255
312 1 76.9335 15.8392 47.5177
316 1 81.459 15.8392 47.5177
314 4 83.7218 15.8392 45.255
320 1 85.9845 15.8392 47.5177
318 5 88.2473 15.8392 45.255
321 1 0.0 18.102 45.255
322 3 2.26275 20.3648 45.255
323 3 2.26275 18.102 47.5177
324 2 0.0 20.3648 47.5177
325 1 4.5255 18.102 45.255
326 1 6.78825 20.3648 45.255
327 1 6.78825 18.102 47.5177
328 1 4.5255 20.3648 47.5177
329 4 9.051 18.102 45.255
332 1 9.051 20.3648 47.5177
330 2 11.3138 20.3648 45.255
331 3 11.3138 18.102 47.5177
333 1 13.5765 18.102 45.255
336 5 13.5765 20.3648 47.5177
334 1 15.8392 20.3648 45.255
335 3 15.8392 18.102 47.5177
337 5 18.102 18.102 45.255
338 4 20.3648 20.3648 45.255
339 2 20.3648 18.102 47.5177
340 2 18.102 20.3648 47.5177
341 1 22.6275 18.102 45.255
344 1 22.6275 20.3648 47.5177
342 3 24.8903 20.3648 45.255
343 1 24.8903 18.102 47.5177
345 1 27.153 18.102 45.255
348 1 27.153 20.3648 47.5177
346 1 29.4157 20.3648 45.255
347 4 29.4157 18.102 47.5177
349 1 31.6785 18.102 45.255
350 2 33.9413 20.3648 45.255
351 2 33.9413 18.102 47.5177
352 1 31.6785 20.3648 47.5177
353 2 36.204 18.102 45.255
356 1 36.204 20.3648 47.5177
354 1 38.4667 20.3648 45.255
355 1 38.4667 18.102 47.5177
357 3 40.7295 18.102 45.255
360 1 40.7295 20.3648 47.5177
358 1 42.9922 20.3648 45.255
359 2 42.9922 18.102 47.5177
361 1 45.255 18.102 45.255
362 3 47.5177 20.3648 45.255
363 1 47.5177 18.102 47.5177
364 1 45.255 20.3648 47.5177
365 1 49.7805 18.102 45.255
366 2 52.0433 20.3648 45.255
367 1 52.0433 18.102 47.5177
368 2 49.7805 20.3648 47.5177
369 1 54.306 18.102 45.255
372 2 54.306 20.3648 47.5177
370 2 56.5688 20.3648 45.255
371 4 56.5688 18.102 47.5177
373 5 58.8315 18.102 45.255
376 3 58.8315 20.3648 47.5177
374 1 61.0943 20.3648 45.255
375 1 61.0943 18.102 47.5177
377 4 63.357 18.102 45.255
378 1 65.6197 20.3648 45.255
379 4 65.6197 18.102 47.5177
380 1 63.357 20.3648 47.5177
381 1 67.8825 18.102 45.255
384 1 67.8825 20.3648 47.5177
382 2 70.1453 20.3648 45.255
383 1 70.1453 18.102 47.5177
385 5 72.408 18.102 45.255
388 5 72.408 20.3648 47.5177
386 4 74.6707 20.3648 45.255
387 2 74.6707 18.102 47.5177
389 1 76.9335 18.102 45.255
390 1 79.1963 20.3648 45.255
391 1 79.1963 18.102 47.5177
392 2 76.9335 20.3648 47.5177
393 4 81.459 18.102 45.255
396 1 81.459 20.3648 47.5177
394 2 83.7218 20.3648 45.255
395 1 83.7218 18.102 47.5177
397 2 85.9845 18.102 45.255
400 3 85.9845 20.3648 47.5177
398 1 88.2473 20.3648 45.255
399 3 88.2473 18.102 47.5177
401 2 0.0 22.6275 45.255
403 5 2.26275 22.6275 47.5177
405 3 4.5255 22.6275 45.255
407 3 6.78825 22.6275 47.5177
409 3 9.051 22.6275 45.255
411 2 11.3138 22.6275 47.5177
413 1 13.5765 22.6275 45.255
415 3 15.8392 22.6275 47.5177
417 4 18.102 22.6275 45.255
419 1 20.3648 22.6275 47.5177
421 1 22.6275 22.6275 45.255
423 1 24.8903 22.6275 47.5177
425 1 27.153 22.6275 45.255
427 1 29.4157 22.6275 47.5177
429 1 31.6785 22.6275 45.255
431 1 33.9413 22.6275 47.5177
433 4 36.204 22.6275 45.255
435 1 38.4667 22.6275 47.5177
437 1 40.7295 22.6275 45.255
439 2 42.9922 22.6275 47.5177
441 4 45.255 22.6275 45.255
443 4 47.5177 22.6275 47.5177
445 1 49.7805 22.6275 45.255
447 3 52.0433 22.6275 47.5177
449 1 54.306 22.6275 45.255
451 1 56.5688 22.6275 47.5177
453 1 58.8315 22.6275 45.255
455 1 61.0943 22.6275 47.5177
457 4 63.357 22.6275 45.255
459 1 65.6197 22.6275 47.5177
461 2 67.8825 22.6275 45.255
463 1 70.1453 22.6275 47.5177
465 4 72.408 22.6275 45.255
467 2 74.6707 22.6275 47.5177
469 1 76.9335 22.6275 45.255
471 1 79.1963 22.6275 47.5177
473 2 81.459 22.6275 45.255
475 1 83.7218 22.6275 47.5177
477 4 85.9845 22.6275 45.255
479 1 88.2473 22.6275 47.5177
402 1 2.26275 24.8903 45.255
404 4 0.0 24.8903 47.5177
481 3 0.0 27.153 45.255
483 2 2.26275 27.153 47.5177
406 4 6.78825 24.8903 45.255
408 1 4.5255 24.8903 47.5177
485 4 4.5255 27.153 45.255
487 3 6.78825 27.153 47.5177
412 5 9.051 24.8903 47.5177
489 1 9.051 27.153 45.255
410 2 11.3138 24.8903 45.255
416 1 13.5765 24.8903 47.5177
491 2 11.3138 27.153 47.5177
493 1 13.5765 27.153 45.255
414 3 15.8392 24.8903 45.255
495 1 15.8392 27.153 47.5177
418 1 20.3648 24.8903 45.255
420 2 18.102 24.8903 47.5177
497 1 18.102 27.153 45.255
499 4 20.3648 27.153 47.5177
424 4 22.6275 24.8903 47.5177
501 1 22.6275 27.153 45.255
422 1 24.8903 24.8903 45.255
428 3 27.153 24.8903 47.5177
503 1 24.8903 27.153 47.5177
505 5 27.153 27.153 45.255
426 1 29.4157 24.8903 45.255
507 1 29.4157 27.153 47.5177
430 5 33.9413 24.8903 45.255
432 1 31.6785 24.8903 47.5177
509 1 31.6785 27.153 45.255
511 3 33.9413 27.153 47.5177
436 2 36.204 24.8903 47.5177
513 1 36.204 27.153 45.255
434 1 38.4667 24.8903 45.255
440 1 40.7295 24.8903 47.5177
515 1 38.4667 27.153 47.5177
517 1 40.7295 27.153 45.255
438 1 42.9922 24.8903 45.255
519 2 42.9922 27.153 47.5177
442 3 47.5177 24.8903 45.255
444 2 45.255 24.8903 47.5177
521 1 45.255 27.153 45.255
523 1 47.5177 27.153 47.5177
446 3 52.0433 24.8903 45.255
448 1 49.7805 24.8903 47.5177
525 3 49.7805 27.153 45.255
527 1 52.0433 27.153 47.5177
452 1 54.306 24.8903 47.5177
529 2 54.306 27.153 45.255
450 5 56.5688 24.8903 45.255
456 5 58.8315 24.8903 47.5177
531 1 56.5688 27.153 47.5177
533 2 58.8315 27.153 45.255
454 1 61.0943 24.8903 45.255
535 1 61.0943 27.153 47.5177
458 1 65.6197 24.8903 45.255
460 1 63.357 24.8903 47.5177
537 1 63.357 27.153 45.255
539 1 65.6197 27.153 47.5177
464 3 67.8825 24.8903 47.5177
541 1 67.8825 27.153 45.255
462 4 70.1453 24.8903 45.255
468 1 72.408 24.8903 47.5177
543 1 70.1453 27.153 47.5177
545 2 72.408 27.153 45.255
466 3 74.6707 24.8903 45.255
547 1 74.6707 27.153 47.5177
470 2 79.1963 24.8903 45.255
472 1 76.9335 24.8903 47.5177
549 1 76.9335 27.153 45.255
551 3 79.1963 27.153 47.5177
476 2 81.459 24.8903 47.5177
553 1 81.459 27.153 45.255
474 1 83.7218 24.8903 45.255
480 1 85.9845 24.8903 47.5177
555 2 83.7218 27.153 47.5177
557 2 85.9845 27.153 45.255
478 1 88.2473 24.8903 45.255
559 2 88.2473 27.153 47.5177
482 2 2.26275 29.4157 45.255
484 1 0.0 29.4157 47.5177
486 1 6.78825 29.4157 45.255
488 1 4.5255 29.4157 47.5177
492 2 9.051 29.4157 47.5177
490 4 11.3138 29.4157 45.255
496 2 13.5765 29.4157 47.5177
494 1 15.8392 29.4157 45.255
498 2 20.3648 29.4157 45.255
500 2 18.102 29.4157 47.5177
504 1 22.6275 29.4157 47.5177
502 2 24.8903 29.4157 45.255
508 2 27.153 29.4157 47.5177
506 1 29.4157 29.4157 45.255
510 1 33.9413 29.4157 45.255
512 1 31.6785 29.4157 47.5177
516 5 36.204 29.4157 47.5177
514 1 38.4667 29.4157 45.255
520 1 40.7295 29.4157 47.5177
518 3 42.9922 29.4157 45.255
522 2 47.5177 29.4157 45.255
524 1 45.255 29.4157 47.5177
526 2 52.0433 29.4157 45.255
528 2 49.7805 29.4157 47.5177
532 1 54.306 29.4157 47.5177
530 1 56.5688 29.4157 45.255
536 5 58.8315 29.4157 47.5177
534 4 61.0943 29.4157 45.255
538 2 65.6197 29.4157 45.255
540 1 63.357 29.4157 47.5177
544 1 67.8825 29.4157 47.5177
542 1 70.1453 29.4157 45.255
548 3 72.408 29.4157 47.5177
546 1 74.6707 29.4157 45.255
550 2 79.1963 29.4157 45.255
552 4 76.9335 29.4157 47.5177
556 2 81.459 29.4157 47.5177
554 1 83.7218 29.4157 45.255
560 3 85.9845 29.4157 47.5177
558 2 88.2473 29.4157 45.255
561 2 0.0 31.6785 45.255
562 1 2.26275 33.9413 45.255
563 1 2.26275 31.6785 47.5177
564 5 0.0 33.9413 47.5177
565 1 4.5255 31.6785 45.255
566 1 6.78825 33.9413 45.255
567 1 6.78825 31.6785 47.5177
568 1 4.5255 33.9413 47.5177
569 2 9.051 31.6785 45.255
572 3 9.051 33.9413 47.5177
570 4 11.3138 33.9413 45.255
571 1 11.3138 31.6785 47.5177
573 1 13.5765 31.6785 45.255
576 1 13.5765 33.9413 47.5177
574 3 15.8392 33.9413 45.255
575 1 15.8392 31.6785 47.5177
577 1 18.102 31.6785 45.255
578 1 20.3648 33.9413 45.255
579 2 20.3648 31.6785 47.5177
580 3 18.102 33.9413 47.5177
581 1 22.6275 31.6785 45.255
584 1 22.6275 33.9413 47.5177
582 5 24.8903 33.9413 45.255
583 1 24.8903 31.6785 47.5177
585 1 27.153 31.6785 45.255
588 1 27.153 33.9413 47.5177
586 1 29.4157 33.9413 45.255
587 3 29.4157 31.6785 47.5177
589 4 31.6785 31.6785 45.255
590 1 33.9413 33.9413 45.255
591 1 33.9413 31.6785 47.5177
592 3 31.6785 33.9413 47.5177
593 1 36.204 31.6785 45.255
596 2 36.204 33.9413 47.5177
594 1 38.4667 33.9413 45.255
595 1 38.4667 31.6785 47.5177
597 1 40.7295 31.6785 45.255
600 1 40.7295 33.9413 47.5177
598 5 42.9922 33.9413 45.255
599 1 42.9922 31.6785 47.5177
601 2 45.255 31.6785 45.255
602 2 47.5177 33.9413 45.255
603 3 47.5177 31.6785 47.5177
604 4 45.255 33.9413 47.5177
605 4 49.7805 31.6785 45.255
606 2 52.0433 33.9413 45.255
607 1 52.0433 31.6785 47.5177
608 1 49.7805 33.9413 47.5177
609 1 54.306 31.6785 45.255
612 3 54.306 33.9413 47.5177
610 2 56.5688 33.9413 45.255
611 1 56.5688 31.6785 47.5177
613 2 58.8315 31.6785 45.255
616 2 58.8315 33.9413 47.5177
614 2 61.0943 33.9413 45.255
615 1 61.0943 31.6785 47.5177
617 2 63.357 31.6785 45.255
618 2 65.6197 33.9413 45.255
619 1 65.6197 31.6785 47.5177
620 1 63.357 33.9413 47.5177
621 3 67.8825 31.6785 45.255
624 1 67.8825 33.9413 47.5177
622 1 70.1453 33.9413 45.255
623 1 70.1453 31.6785 47.5177
625 2 72.408 31.6785 45.255
628 1 72.408 33.9413 47.5177
626 3 74.6707 33.9413 45.255
627 4 74.6707 31.6785 47.5177
629 5 76.9335 31.6785 45.255
630 1 79.1963 33.9413 45.255
631 3 79.1963 31.6785 47.5177
632 1 76.9335 33.9413 47.5177
633 1 81.459 31.6785 45.255
636 2 81.459 33.9413 47.5177
634 1 83.7218 33.9413 45.255
635 1 83.7218 31.6785 47.5177
637 5 85.9845 31.6785 45.255
640 2 85.9845 33.9413 47.5177
638 1 88.2473 33.9413 45.255
639 3 88.2473 31.6785 47.5177
641 1 0.0 36.204 45.255
643 4 2.26275 36.204 47.5177
645 3 4.5255 36.204 45.255
647 3 6.78825 36.204 47.5177
649 1 9.051 36.204 45.255
651 3 11.3138 36.204 47.5177
653 4 13.5765 36.204 45.255
655 1 15.8392 36.204 47.5177
657 4 18.102 36.204 45.255
659 1 20.3648 36.204 47.5177
661 4 22.6275 36.204 45.255
663 1 24.8903 36.204 47.5177
665 1 27.153 36.204 45.255
667 5 29.4157 36.204 47.5177
669 1 31.6785 36.204 45.255
671 1 33.9413 36.204 47.5177
673 2 36.204 36.204 45.255
675 5 38.4667 36.204 47.5177
677 1 40.7295 36.204 45.255
679 2 42.9922 36.204 47.5177
681 1 45.255 36.204 45.255
683 1 47.5177 36.204 47.5177
685 1 49.7805 36.204 45.255
687 4 52.0433 36.204 47.5177
689 1 54.306 36.204 45.255
691 1 56.5688 36.204 47.5177
693 2 58.8315 36.204 45.255
695 4 61.0943 36.204 47.5177
697 3 63.357 36.204 45.255
699 1 65.6197 36.204 47.5177
701 4 67.8825 36.204 45.255
703 3 70.1453 36.204 47.5177
705 4 72.408 36.204 45.255
707 1 74.6707 36.204 47.5177
709 4 76.9335 36.204 45.255
711 1 79.1963 36.204 47.5177
713 2 81.459 36.204 45.255
715 4 83.7218 36.204 47.5177
717 2 85.9845 36.204 45.255
719 3 88.2473 36.204 47.5177
642 1 2.26275 38.4667 45.255
644 2 0.0 38.4667 47.5177
721 1 0.0 40.7295 45.255
723 1 2.26275 40.7295 47.5177
646 3 6.78825 38.4667 45.255
648 2 4.5255 38.4667 47.5177
725 1 4.5255 40.7295 45.255
727 1 6.78825 40.7295 47.5177
652 2 9.051 38.4667 47.5177
729 3 9.051 40.7295 45.255
650 4 11.3138 38.4667 45.255
656 1 13.5765 38.4667 47.5177
731 1 11.3138 40.7295 47.5177
733 4 13.5765 40.7295 45.255
654 3 15.8392 38.4667 45.255
735 3 15.8392 40.7295 47.5177
658 1 20.3648 38.4667 45.255
660 5 18.102 38.4667 47.5177
737 1 18.102 40.7295 45.255
739 3 20.3648 40.7295 47.5177
664 2 22.6275 38.4667 47.5177
741 4 22.6275 40.7295 45.255
662 2 24.8903 38.4667 45.255
668 1 27.153 38.4667 47.5177
743 1 24.8903 40.7295 47.5177
745 1 27.153 40.7295 45.255
666 3 29.4157 38.4667 45.255
747 1 29.4157 40.7295 47.5177
670 1 33.9413 38.4667 45.255
672 1 31.6785 38.4667 47.5177
749 1 31.6785 40.7295 45.255
751 1 33.9413 40.7295 47.5177
676 3 36.204 38.4667 47.5177
753 2 36.204 40.7295 45.255
674 1 38.4667 38.4667 45.255
680 1 40.7295 38.4667 47.5177
755 5 38.4667 40.7295 47.5177
757 1 40.7295 40.7295 45.255
678 3 42.9922 38.4667 45.255
759 4 42.9922 40.7295 47.5177
682 1 47.5177 38.4667 45.255
684 2 45.255 38.4667 47.5177
761 1 45.255 40.7295 45.255
763 1 47.5177 40.7295 47.5177
686 1 52.0433 38.4667 45.255
688 1 49.7805 38.4667 47.5177
765 1 49.7805 40.7295 45.255
767 3 52.0433 40.7295 47.5177
692 1 54.306 38.4667 47.5177
769 1 54.306 40.7295 45.255
690 1 56.5688 38.4667 45.255
696 1 58.8315 38.4667 47.5177
771 3 56.5688 40.7295 47.5177
773 1 58.8315 40.7295 45.255
694 2 61.0943 38.4667 45.255
775 1 61.0943 40.7295 47.5177
698 5 65.6197 38.4667 45.255
700 4 63.357 38.4667 47.5177
777 1 63.357 40.7295 45.255
779 1 65.6197 40.7295 47.5177
704 2 67.8825 38.4667 47.5177
781 3 67.8825 40.7295 45.255
702 1 70.1453 38.4667 45.255
708 1 72.408 38.4667 47.5177
783 2 70.1453 40.7295 47.5177
785 1 72.408 40.7295 45.255
706 2 74.6707 38.4667 45.255
787 1 74.6707 40.7295 47.5177
710 1 79.1963 38.4667 45.255
712 1 76.9335 38.4667 47.5177
789 1 76.9335 40.7295 45.255
791 1 79.1963 40.7295 47.5177
716 4 81.459 38.4667 47.5177
793 4 81.459 40.7295 45.255
714 4 83.7218 38.4667 45.255
720 4 85.9845 38.4667 47.5177
795 3 83.7218 40.7295 47.5177
797 2 85.9845 40.7295 45.255
718 5 88.2473 38.4667 45.255
799 1 88.2473 40.7295 47.5177
722 1 2.26275 42.9922 45.255
724 3 0.0 42.9922 47.5177
726 2 6.78825 42.9922 45.255
728 1 4.5255 42.9922 47.5177
732 1 9.051 42.9922 47.5177
730 2 11.3138 42.9922 45.255
736 2 13.5765 42.9922 47.5177
734 4 15.8392 42.9922 45.255
738 1 20.3648 42.9922 45.255
740 2 18.102 42.9922 47.5177
744 1 22.6275 42.9922 47.5177
742 3 24.8903 42.9922 45.255
748 2 27.153 42.9922 47.5177
746 3 29.4157 42.9922 45.255
750 1 33.9413 42.9922 45.255
752 2 31.6785 42.9922 47.5177
756 1 36.204 42.9922 47.5177
754 1 38.4667 42.9922 45.255
760 4 40.7295 42.9922 47.5177
758 1 42.9922 42.9922 45.255
762 3 47.5177 42.9922 45.255
764 1 45.255 42.9922 47.5177
766 1 52.0433 42.9922 45.255
768 1 49.7805 42.9922 47.5177
772 4 54.306 42.9922 47.5177
770 2 56.5688 42.9922 45.255
776 1 58.8315 42.9922 47.5177
774 1 61.0943 42.9922 45.255
778 2 65.6197 42.9922 45.255
780 1 63.357 42.9922 47.5177
784 3 67.8825 42.9922 47.5177
782 1 70.1453 42.9922 45.255
788 1 72.408 42.9922 47.5177
786 3 74.6707 42.9922 45.255
790 1 79.1963 42.9922 45.255
792 4 76.9335 42.9922 47.5177
796 2 81.459 42.9922 47.5177
794 4 83.7218 42.9922 45.255
800 1 85.9845 42.9922 47.5177
798 1 88.2473 42.9922 45.255
801 3 0.0 45.255 45.255
802 5 2.26275 47.5177 45.255
803 1 2.26275 45.255 47.5177
804 1 0.0 47.5177 47.5177
805 1 4.5255 45.255 45.255
806 1 6.78825 47.5177 45.255
807 3 6.78825 45.255 47.5177
808 1 4.5255 47.5177 47.5177
809 1 9.051 45.255 45.255
812 2 9.051 47.5177 47.5177
810 2 11.3138 47.5177 45.255
811 2 11.3138 45.255 47.5177
813 1 13.5765 45.255 45.255
816 5 13.5765 47.5177 47.5177
814 1 15.8392 47.5177 45.255
815 1 15.8392 45.255 47.5177
817 1 18.102 45.255 45.255
818 1 20.3648 47.5177 45.255
819 2 20.3648 45.255 47.5177
820 2 18.102 47.5177 47.5177
821 1 22.6275 45.255 45.255
824 3 22.6275 47.5177 47.5177
822 1 24.8903 47.5177 45.255
823 1 24.8903 45.255 47.5177
825 1 27.153 45.255 45.255
828 2 27.153 47.5177 47.5177
826 5 29.4157 47.5177 45.255
827 4 29.4157 45.255 47.5177
829 2 31.6785 45.255 45.255
830 2 33.9413 47.5177 45.255
831 1 33.9413 45.255 47.5177
832 3 31.6785 47.5177 47.5177
833 1 36.204 45.255 45.255
836 1 36.204 47.5177 47.5177
834 5 38.4667 47.5177 45.255
835 1 38.4667 45.255 47.5177
837 4 40.7295 45.255 45.255
840 1 40.7295 47.5177 47.5177
838 1 42.9922 47.5177 45.255
839 4 42.9922 45.255 47.5177
841 1 45.255 45.255 45.255
842 1 47.5177 47.5177 45.255
843 1 47.5177 45.255 47.5177
844 5 45.255 47.5177 47.5177
845 4 49.7805 45.255 45.255
846 2 52.0433 47.5177 45.255
847 1 52.0433 45.255 47.5177
848 1 49.7805 47.5177 47.5177
849 4 54.306 45.255 45.255
852 5 54.306 47.5177 47.5177
850 1 56.5688 47.5177 45.255
851 3 56.5688 45.255 47.5177
853 5 58.8315 45.255 45.255
856 1 58.8315 47.5177 47.5177
854 1 61.0943 47.5177 45.255
855 1 61.0943 45.255 47.5177
857 1 63.357 45.255 45.255
858 2 65.6197 47.5177 45.255
859 4 65.6197 45.255 47.5177
860 2 63.357 47.5177 47.5177
861 3 67.8825 45.255 45.255
864 1 67.8825 47.5177 47.5177
862 5 70.1453 47.5177 45.255
863 2 70.1453 45.255 47.5177
865 1 72.408 45.255 45.255
868 1 72.408 47.5177 47.5177
866 1 74.6707 47.5177 45.255
867 2 74.6707 45.255 47.5177
869 2 76.9335 45.255 45.255
870 4 79.1963 47.5177 45.255
871 3 79.1963 45.255 47.5177
872 1 76.9335 47.5177 47.5177
873 1 81.459 45.255 45.255
876 3 81.459 47.5177 47.5177
874 1 83.7218 47.5177 45.255
875 3 83.7218 45.255 47.5177
877 3 85.9845 45.255 45.255
880 3 85.9845 47.5177 47.5177
878 5 88.2473 47.5177 45.255
879 1 88.2473 45.255 47.5177
881 3 0.0 49.7805 45.255
882 3 2.26275 52.0433 45.255
883 2 2.26275 49.7805 47.5177
884 1 0.0 52.0433 47.5177
885 2 4.5255 49.7805 45.255
886 5 6.78825 52.0433 45.255
887 4 6.78825 49.7805 47.5177
888 2 4.5255 52.0433 47.5177
889 3 9.051 49.7805 45.255
892 1 9.051 52.0433 47.5177
890 4 11.3138 52.0433 45.255
891 2 11.3138 49.7805 47.5177
893 2 13.5765 49.7805 45.255
896 1 13.5765 52.0433 47.5177
894 1 15.8392 52.0433 45.255
895 1 15.8392 49.7805 47.5177
897 5 18.102 49.7805 45.255
898 1 20.3648 52.0433 45.255
899 1 20.3648 49.7805 47.5177
900 4 18.102 52.0433 47.5177
901 1 22.6275 49.7805 45.255
904 1 22.6275 52.0433 47.5177
902 1 24.8903 52.0433 45.255
903 1 24.8903 49.7805 47.5177
905 1 27.153 49.7805 45.255
908 1 27.153 52.0433 47.5177
906 1 29.4157 52.0433 45.255
907 1 29.4157 49.7805 47.5177
909 2 31.6785 49.7805 45.255
910 1 33.9413 52.0433 45.255
911 3 33.9413 49.7805 47.5177
912 1 31.6785 52.0433 47.5177
913 4 36.204 49.7805 45.255
916 1 36.204 52.0433 47.5177
914 1 38.4667 52.0433 45.255
915 1 38.4667 49.7805 47.5177
917 1 40.7295 49.7805 45.255
920 3 40.7295 52.0433 47.5177
918 1 42.9922 52.0433 45.255
919 1 42.9922 49.7805 47.5177
921 1 45.255 49.7805 45.255
922 2 47.5177 52.0433 45.255
923 1 47.5177 49.7805 47.5177
924 5 45.255 52.0433 47.5177
925 2 49.7805 49.7805 45.255
926 1 52.0433 52.0433 45.255
927 2 52.0433 49.7805 47.5177
928 5 49.7805 52.0433 47.5177
929 4 54.306 49.7805 45.255
932 4 54.306 52.0433 47.5177
930 2 56.5688 52.0433 45.255
931 1 56.5688 49.7805 47.5177
933 2 58.8315 49.7805 45.255
936 1 58.8315 52.0433 47.5177
934 2 61.0943 52.0433 45.255
935 5 61.0943 49.7805 47.5177
937 1 63.357 49.7805 45.255
938 2 65.6197 52.0433 45.255
939 3 65.6197 49.7805 47.5177
940 2 63.357 52.0433 47.5177
941 3 67.8825 49.7805 45.255
944 3 67.8825 52.0433 47.5177
942 1 70.1453 52.0433 45.255
943 3 70.1453 49.7805 47.5177
945 1 72.408 49.7805 45.255
948 4 72.408 52.0433 47.5177
946 2 74.6707 52.0433 45.255
947 2 74.6707 49.7805 47.5177
949 1 76.9335 49.7805 45.255
950 3 79.1963 52.0433 45.255
951 1 79.1963 49.7805 47.5177
952 3 76.9335 52.0433 47.5177
953 1 81.459 49.7805 45.255
956 1 81.459 52.0433 47.5177
954 1 83.7218 52.0433 45.255
955 4 83.7218 49.7805 47.5177
957 3 85.9845 49.7805 45.255
960 3 85.9845 52.0433 47.5177
958 3 88.2473 52.0433 45.255
959 3 88.2473 49.7805 47.5177
961 2 0.0 54.306 45.255
963 2 2.26275 54.306 47.5177
965 3 4.5255 54.306 45.255
967 1 6.78825 54.306 47.5177
969 2 9.051 54.306 45.255
971 1 11.3138 54.306 47.5177
973 1 13.5765 54.306 45.255
975 4 15.8392 54.306 47.5177
977 5 18.102 54.306 45.255
979 1 20.3648 54.306 47.5177
981 1 22.6275 54.306 45.255
983 1 24.8903 54.306 47.5177
985 1 27.153 54.306 45.255
987 1 29.4157 54.306 47.5177
989 1 31.6785 54.306 45.255
991 1 33.9413 54.306 47.5177
993 2 36.204 54.306 45.255
995 3 38.4667 54.306 47.5177
997 4 40.7295 54.306 45.255
999 1 42.9922 54.306 47.5177
1001 1 45.255 54.306 45.255
1003 1 47.5177 54.306 47.5177
1005 1 49.7805 54.306 45.255
1007 1 52.0433 54.306 47.5177
1009 1 54.306 54.306 45.255
1011 3 56.5688 54.306 47.5177
1013 2 58.8315 54.306 45.255
1015 3 61.0943 54.306 47.5177
1017 3 63.357 54.306 45.255
1019 4 65.6197 54.306 47.5177
1021 1 67.8825 54.306 45.255
1023 1 70.1453 54.306 47.5177
1025 2 72.408 54.306 45.255
1027 1 74.6707 54.306 47.5177
1029 2 76.9335 54.306 45.255
1031 1 79.1963 54.306 47.5177
1033 1 81.459 54.306 45.255
1035 5 83.7218 54.306 47.5177
1037 2 85.9845 54.306 45.255
1039 1 88.2473 54.306 47.5177
962 1 2.26275 56.5688 45.255
964 4 0.0 56.5688 47.5177
1041 3 0.0 58.8315 45.255
1043 1 2.26275 58.8315 47.5177
966 2 6.78825 56.5688 45.255
968 1 4.5255 56.5688 47.5177
1045 1 4.5255 58.8315 45.255
1047 3 6.78825 58.8315 47.5177
972 1 9.051 56.5688 47.5177
1049 3 9.051 58.8315 45.255
970 1 11.3138 56.5688 45.255
976 1 13.5765 56.5688 47.5177
1051 1 11.3138 58.8315 47.5177
1053 1 13.5765 58.8315 45.255
974 2 15.8392 56.5688 45.255
1055 1 15.8392 58.8315 47.5177
978 1 20.3648 56.5688 45.255
980 1 18.102 56.5688 47.5177
1057 1 18.102 58.8315 45.255
1059 2 20.3648 58.8315 47.5177
984 2 22.6275 56.5688 47.5177
1061 1 22.6275 58.8315 45.255
982 1 24.8903 56.5688 45.255
988 1 27.153 56.5688 47.5177
1063 1 24.8903 58.8315 47.5177
1065 1 27.153 58.8315 45.255
986 2 29.4157 56.5688 45.255
1067 1 29.4157 58.8315 47.5177
990 2 33.9413 56.5688 45.255
992 3 31.6785 56.5688 47.5177
1069 2 31.6785 58.8315 45.255
1071 4 33.9413 58.8315 47.5177
996 1 36.204 56.5688 47.5177
1073 1 36.204 58.8315 45.255
994 1 38.4667 56.5688 45.255
1000 1 40.7295 56.5688 47.5177
1075 1 38.4667 58.8315 47.5177
1077 1 40.7295 58.8315 45.255
998 1 42.9922 56.5688 45.255
1079 2 42.9922 58.8315 47.5177
1002 2 47.5177 56.5688 45.255
1004 2 45.255 56.5688 47.5177
1081 5 45.255 58.8315 45.255